# vtk DataFile Version 3.0
Cables to test STAP90
ASCII
DATASET UNSTRUCTURED_GRID

POINTS       289   double
0                   0                   0
               0.125                   0          -0.0238182
                0.25                   0          -0.0684998
               0.375                   0           -0.117589
                 0.5                   0           -0.164263
               0.625                   0           -0.204436
                0.75                   0           -0.235193
               0.875                   0           -0.254479
                   1                   0           -0.261047
               1.125                   0           -0.254479
                1.25                   0           -0.235193
               1.375                   0           -0.204436
                 1.5                   0           -0.164263
               1.625                   0           -0.117589
                1.75                   0          -0.0684998
               1.875                   0          -0.0238182
                   2                   0                   0
                   0               0.125          -0.0238182
               0.125               0.125          -0.0684064
                0.25               0.125           -0.115613
               0.375               0.125           -0.163689
                 0.5               0.125           -0.208687
               0.625               0.125           -0.247304
                0.75               0.125           -0.276893
               0.875               0.125           -0.295476
                   1               0.125           -0.301812
               1.125               0.125           -0.295476
                1.25               0.125           -0.276893
               1.375               0.125           -0.247304
                 1.5               0.125           -0.208687
               1.625               0.125           -0.163689
                1.75               0.125           -0.115613
               1.875               0.125          -0.0684064
                   2               0.125          -0.0238182
                   0                0.25          -0.0684998
               0.125                0.25           -0.115613
                0.25                0.25           -0.163251
               0.375                0.25             -0.2104
                 0.5                0.25           -0.254224
               0.625                0.25            -0.29187
                0.75                0.25           -0.320817
               0.875                0.25           -0.339062
                   1                0.25           -0.345296
               1.125                0.25           -0.339062
                1.25                0.25           -0.320817
               1.375                0.25            -0.29187
                 1.5                0.25           -0.254224
               1.625                0.25             -0.2104
                1.75                0.25           -0.163251
               1.875                0.25           -0.115613
                   2                0.25          -0.0684998
                   0               0.375           -0.117589
               0.125               0.375           -0.163689
                0.25               0.375             -0.2104
               0.375               0.375           -0.256417
                 0.5               0.375           -0.299368
               0.625               0.375           -0.336553
                0.75               0.375           -0.365392
               0.875               0.375             -0.3837
                   1               0.375            -0.38998
               1.125               0.375             -0.3837
                1.25               0.375           -0.365392
               1.375               0.375           -0.336553
                 1.5               0.375           -0.299368
               1.625               0.375           -0.256417
                1.75               0.375             -0.2104
               1.875               0.375           -0.163689
                   2               0.375           -0.117589
                   0                 0.5           -0.164263
               0.125                 0.5           -0.208687
                0.25                 0.5           -0.254224
               0.375                 0.5           -0.299368
                 0.5                 0.5           -0.341914
               0.625                 0.5           -0.379241
                0.75                 0.5           -0.408609
               0.875                 0.5           -0.427485
                   1                 0.5           -0.434009
               1.125                 0.5           -0.427485
                1.25                 0.5           -0.408609
               1.375                 0.5           -0.379241
                 1.5                 0.5           -0.341914
               1.625                 0.5           -0.299368
                1.75                 0.5           -0.254224
               1.875                 0.5           -0.208687
                   2                 0.5           -0.164263
                   0               0.625           -0.204436
               0.125               0.625           -0.247304
                0.25               0.625            -0.29187
               0.375               0.625           -0.336553
                 0.5               0.625           -0.379241
               0.625               0.625           -0.417368
                0.75               0.625           -0.448019
               0.875               0.625           -0.468135
                   1               0.625           -0.475177
               1.125               0.625           -0.468135
                1.25               0.625           -0.448019
               1.375               0.625           -0.417368
                 1.5               0.625           -0.379241
               1.625               0.625           -0.336553
                1.75               0.625            -0.29187
               1.875               0.625           -0.247304
                   2               0.625           -0.204436
                   0                0.75           -0.235193
               0.125                0.75           -0.276893
                0.25                0.75           -0.320817
               0.375                0.75           -0.365392
                 0.5                0.75           -0.408609
               0.625                0.75           -0.448019
                0.75                0.75           -0.480658
               0.875                0.75           -0.502884
                   1                0.75           -0.510865
               1.125                0.75           -0.502884
                1.25                0.75           -0.480658
               1.375                0.75           -0.448019
                 1.5                0.75           -0.408609
               1.625                0.75           -0.365392
                1.75                0.75           -0.320817
               1.875                0.75           -0.276893
                   2                0.75           -0.235193
                   0               0.875           -0.254479
               0.125               0.875           -0.295476
                0.25               0.875           -0.339062
               0.375               0.875             -0.3837
                 0.5               0.875           -0.427485
               0.625               0.875           -0.468135
                0.75               0.875           -0.502884
               0.875               0.875           -0.528033
                   1               0.875           -0.537817
               1.125               0.875           -0.528033
                1.25               0.875           -0.502884
               1.375               0.875           -0.468135
                 1.5               0.875           -0.427485
               1.625               0.875             -0.3837
                1.75               0.875           -0.339062
               1.875               0.875           -0.295476
                   2               0.875           -0.254479
                   0                   1           -0.261047
               0.125                   1           -0.301812
                0.25                   1           -0.345296
               0.375                   1            -0.38998
                 0.5                   1           -0.434009
               0.625                   1           -0.475177
                0.75                   1           -0.510865
               0.875                   1           -0.537817
                   1                   1           -0.550173
               1.125                   1           -0.537817
                1.25                   1           -0.510865
               1.375                   1           -0.475177
                 1.5                   1           -0.434009
               1.625                   1            -0.38998
                1.75                   1           -0.345296
               1.875                   1           -0.301812
                   2                   1           -0.261047
                   0               1.125           -0.254479
               0.125               1.125           -0.295476
                0.25               1.125           -0.339062
               0.375               1.125             -0.3837
                 0.5               1.125           -0.427485
               0.625               1.125           -0.468135
[...]
POINT_DATA         289
SCALARS load1_x   double  1
LOOKUP_TABLE load1_x
0
0
0
0
0
0
0
0
0
0
0
0
0
0
0
0
0
0
0
0
0
0
0
0
0
0
0
0
0
0
0
0
0
0
0
0
0
0
0
0
0
0
0
0
0
0
0
0
0
0
0
0
0
0
0
0
0
0
0
0
0
0
0
0
0
0
0
0
0
0
0
0
0
0
0
0
0
0
0
0
0
0
0
0
0
0
0
0
0
0
0
0
0
0
0
0
0
0
0
0
0
0
0
0
0
0
0
0
0
0
0
0
0
0
0
0
0
0
0
0
0
0
0
0
0
0
0
0
0
0
0
0
0
0
0
0
0
0
0
0
0
0
0
0
0
0
0
0
0
0
0
0
0
0
0
0
0
0
0
0
0
0
0
0
0
0
0
0
0
0
0
0
0
0
0
0
0
0
0
0
0
0
0
0
0
0
0
0
0
0
0
0
0
0
0
0
0
0
0
0
0
0
0
0
0
0
0
0
0
0
0
0
0
0
0
0
0
0
0
0
0
0
0
0
0
0
0
0
0
0
0
0
0
0
0
0
0
0
0
0
0
0
0
0
0
0
0
0
0
0
0
0
0
0
0
0
0
0
0
0
0
0
0
0
0
0
0
0
0
0
0
0
0
0
0
0
0
0
0
0
0
0
0
0
0
0
0
0
0
SCALARS load1_y   double  1
LOOKUP_TABLE load1_y
0
0
0
0
0
0
0
0
0
0
0
0
0
0
0
0
0
0
0
0
0
0
0
0
0
0
0
0
0
0
0
0
0
0
0
0
0
0
0
0
0
0
0
0
0
0
0
0
0
0
0
0
0
0
0
0
0
0
0
0
0
0
0
0
0
0
0
0
0
0
0
0
0
0
0
0
0
0
0
0
0
0
0
0
0
0
0
0
0
0
0
0
0
0
0
0
0
0
0
0
0
0
0
0
0
0
0
0
0
0
0
0
0
0
0
0
0
0
0
0
0
0
0
0
0
0
0
0
0
0
0
0
0
0
0
0
0
0
0
0
0
0
0
0
0
0
0
0
0
0
0
0
0
0
0
0
0
0
0
0
0
0
0
0
0
0
0
0
0
0
0
0
0
0
0
0
0
0
0
0
0
0
0
0
0
0
0
0
0
0
0
0
0
0
0
0
0
0
0
0
0
0
0
0
0
0
0
0
0
0
0
0
0
0
0
0
0
0
0
0
0
0
0
0
0
0
0
0
0
0
0
0
0
0
0
0
0
0
0
0
0
0
0
0
0
0
0
0
0
0
0
0
0
0
0
0
0
0
0
0
0
0
0
0
0
0
0
0
0
0
0
0
0
0
0
0
0
0
0
0
0
0
0
0
0
0
0
0
0
SCALARS load1_z   double  1
LOOKUP_TABLE load1_z
0
-0.000158788
-0.000456666
-0.000783925
-0.00109509
-0.00136291
-0.00156795
-0.00169653
-0.00174032
-0.00169653
-0.00156795
-0.00136291
-0.00109509
-0.000783925
-0.000456666
-0.000158788
0
-0.000158788
-0.000456043
-0.00077075
-0.00109126
-0.00139125
-0.00164869
-0.00184595
-0.00196984
-0.00201208
-0.00196984
-0.00184595
-0.00164869
-0.00139125
-0.00109126
-0.00077075
-0.000456043
-0.000158788
-0.000456666
-0.00077075
-0.00108834
-0.00140267
-0.00169483
-0.0019458
-0.00213878
-0.00226041
-0.00230197
-0.00226041
-0.00213878
-0.0019458
-0.00169483
-0.00140267
-0.00108834
-0.00077075
-0.000456666
-0.000783925
-0.00109126
-0.00140267
-0.00170944
-0.00199578
-0.00224368
-0.00243595
-0.002558
-0.00259987
-0.002558
-0.00243595
-0.00224368
-0.00199578
-0.00170944
-0.00140267
-0.00109126
-0.000783925
-0.00109509
-0.00139125
-0.00169483
-0.00199578
-0.00227943
-0.00252827
-0.00272406
-0.0028499
-0.00289339
-0.0028499
-0.00272406
-0.00252827
-0.00227943
-0.00199578
-0.00169483
-0.00139125
-0.00109509
-0.00136291
-0.00164869
-0.0019458
-0.00224368
-0.00252827
-0.00278245
-0.00298679
-0.0031209
-0.00316784
-0.0031209
-0.00298679
-0.00278245
-0.00252827
-0.00224368
-0.0019458
-0.00164869
-0.00136291
-0.00156795
-0.00184595
-0.00213878
-0.00243595
-0.00272406
-0.00298679
-0.00320439
-0.00335256
-0.00340577
-0.00335256
-0.00320439
-0.00298679
-0.00272406
-0.00243595
-0.00213878
-0.00184595
-0.00156795
-0.00169653
-0.00196984
-0.00226041
-0.002558
-0.0028499
-0.0031209
-0.00335256
-0.00352022
-0.00358544
-0.00352022
-0.00335256
-0.0031209
-0.0028499
-0.002558
-0.00226041
-0.00196984
-0.00169653
-0.00174032
-0.00201208
-0.00230197
-0.00259987
-0.00289339
-0.00316784
-0.00340577
-0.00358544
-0.00366782
-0.00358544
-0.00340577
-0.00316784
-0.00289339
-0.00259987
-0.00230197
-0.00201208
-0.00174032
-0.00169653
-0.00196984
-0.00226041
-0.002558
-0.0028499
-0.0031209
-0.00335256
-0.00352022
-0.00358544
-0.00352022
-0.00335256
-0.0031209
-0.0028499
-0.002558
-0.00226041
-0.00196984
-0.00169653
-0.00156795
-0.00184595
-0.00213878
-0.00243595
-0.00272406
-0.00298679
-0.00320439
-0.00335256
-0.00340577
-0.00335256
-0.00320439
-0.00298679
-0.00272406
-0.00243595
-0.00213878
-0.00184595
-0.00156795
-0.00136291
-0.00164869
-0.0019458
-0.00224368
-0.00252827
-0.00278245
-0.00298679
-0.0031209
-0.00316784
-0.0031209
-0.00298679
-0.00278245
-0.00252827
-0.00224368
-0.0019458
-0.00164869
-0.00136291
-0.00109509
-0.00139125
-0.00169483
-0.00199578
-0.00227943
-0.00252827
-0.00272406
-0.0028499
-0.00289339
-0.0028499
-0.00272406
-0.00252827
-0.00227943
-0.00199578
-0.00169483
-0.00139125
-0.00109509
-0.000783925
-0.00109126
-0.00140267
-0.00170944
-0.00199578
-0.00224368
-0.00243595
-0.002558
-0.00259987
-0.002558
-0.00243595
-0.00224368
-0.00199578
-0.00170944
-0.00140267
-0.00109126
-0.000783925
-0.000456666
-0.00077075
-0.00108834
-0.00140267
-0.00169483
-0.0019458
-0.00213878
-0.00226041
-0.00230197
-0.00226041
-0.00213878
-0.0019458
-0.00169483
-0.00140267
-0.00108834
-0.00077075
-0.000456666
-0.000158788
-0.000456043
-0.00077075
-0.00109126
-0.00139125
-0.00164869
-0.00184595
-0.00196984
-0.00201208
-0.00196984
-0.00184595
-0.00164869
-0.00139125
-0.00109126
-0.00077075
-0.000456043
-0.000158788
0
-0.000158788
-0.000456666
-0.000783925
-0.00109509
-0.00136291
-0.00156795
-0.00169653
-0.00174032
-0.00169653
-0.00156795
-0.00136291
-0.00109509
-0.000783925
-0.000456666
-0.000158788
0
SCALARS load1_theta_1   double  1
LOOKUP_TABLE load1_theta_1
0
-0.00257456
-0.00249708
-0.00244117
-0.00232224
-0.00221997
-0.00214215
-0.00209492
-0.00207913
-0.00209492
-0.00214215
-0.00221997
-0.00232224
-0.00244117
-0.00249708
-0.00257456
0
-0.00201663
-0.00243408
-0.00251408
-0.00248227
-0.00240834
-0.00234326
-0.00229541
-0.00226762
-0.00225861
-0.00226762
-0.00229541
-0.00234326
-0.00240834
-0.00248227
-0.00251408
-0.00243408
-0.00201663
-0.00258374
-0.00258133
-0.00254916
-0.00249017
-0.0024349
-0.00239645
-0.00237588
-0.00236793
-0.0023662
-0.00236793
-0.00237588
-0.00239645
-0.0024349
-0.00249017
-0.00254916
-0.00258133
-0.00258374
-0.00259541
-0.00251471
-0.00245244
-0.00239606
-0.00236036
-0.00235082
-0.00236087
-0.00237655
-0.00238376
-0.00237655
-0.00236087
-0.00235082
-0.00236036
-0.00239606
-0.00245244
-0.00251471
-0.00259541
-0.00234583
-0.00225637
-0.00219672
-0.00216087
-0.00215419
-0.00217956
-0.00222719
-0.00227382
-0.00229325
-0.00227382
-0.00222719
-0.00217956
-0.00215419
-0.00216087
-0.00219672
-0.00225637
-0.00234583
-0.00191313
-0.00183952
-0.00179627
-0.00178231
-0.00180257
-0.00186114
-0.00195026
-0.00203819
-0.00207523
-0.00203819
-0.00195026
-0.00186114
-0.00180257
-0.00178231
-0.00179627
-0.00183952
-0.00191313
-0.00134911
-0.00129908
-0.00127352
-0.00127414
-0.00130696
-0.00138027
-0.00149832
-0.00163693
-0.00170468
-0.00163693
-0.00149832
-0.00138027
-0.00130696
-0.00127414
-0.00127352
-0.00129908
-0.00134911
-0.000696898
-0.000672026
-0.000660801
-0.000665091
-0.000689428
-0.000741587
-0.000834859
-0.000990399
-0.00113779
-0.000990399
-0.000834859
-0.000741587
-0.000689428
-0.000665091
-0.000660801
-0.000672026
-0.000696898
3.69171e-17
9.40003e-17
1.37368e-16
2.19063e-16
2.55872e-16
3.31928e-16
3.85488e-16
3.65539e-16
3.48329e-16
3.08916e-16
2.76146e-16
1.91687e-16
6.657e-17
1.27936e-17
-5.31801e-17
-1.90115e-16
-3.14852e-16
0.000696898
0.000672026
0.000660801
0.000665091
0.000689428
0.000741587
0.000834859
0.000990399
0.00113779
0.000990399
0.000834859
0.000741587
0.000689428
0.000665091
0.000660801
0.000672026
0.000696898
0.00134911
0.00129908
0.00127352
0.00127414
0.00130696
0.00138027
0.00149832
0.00163693
0.00170468
0.00163693
0.00149832
0.00138027
0.00130696
0.00127414
0.00127352
0.00129908
0.00134911
0.00191313
0.00183952
0.00179627
0.00178231
0.00180257
0.00186114
0.00195026
0.00203819
0.00207523
0.00203819
0.00195026
0.00186114
0.00180257
0.00178231
0.00179627
0.00183952
0.00191313
0.00234583
0.00225637
0.00219672
0.00216087
0.00215419
0.00217956
0.00222719
0.00227382
0.00229325
0.00227382
0.00222719
0.00217956
0.00215419
0.00216087
0.00219672
0.00225637
0.00234583
0.00259541
0.00251471
0.00245244
0.00239606
0.00236036
0.00235082
0.00236087
0.00237655
0.00238376
0.00237655
0.00236087
0.00235082
0.00236036
0.00239606
0.00245244
0.00251471
0.00259541
0.00258374
0.00258133
0.00254916
0.00249017
0.0024349
0.00239645
0.00237588
0.00236793
0.0023662
0.00236793
0.00237588
0.00239645
0.0024349
0.00249017
0.00254916
0.00258133
0.00258374
0.00201663
0.00243408
0.00251408
0.00248227
0.00240834
0.00234326
0.00229541
0.00226762
0.00225861
0.00226762
0.00229541
0.00234326
0.00240834
0.00248227
0.00251408
0.00243408
0.00201663
0
0.00257456
0.00249708
0.00244117
0.00232224
0.00221997
0.00214215
0.00209492
0.00207913
0.00209492
0.00214215
0.00221997
0.00232224
0.00244117
0.00249708
0.00257456
0
SCALARS load1_theta_2   double  1
LOOKUP_TABLE load1_theta_2
0
0.00201663
0.00258374
0.00259541
0.00234583
0.00191313
0.00134911
0.000696898
1.21431e-16
-0.000696898
-0.00134911
-0.00191313
-0.00234583
-0.00259541
-0.00258374
-0.00201663
0
0.00257456
0.00243408
0.00258133
0.00251471
0.00225637
0.00183952
0.00129908
0.000672026
9.36751e-17
-0.000672026
-0.00129908
-0.00183952
-0.00225637
-0.00251471
-0.00258133
-0.00243408
-0.00257456
0.00249708
0.00251408
0.00254916
0.00245244
0.00219672
0.00179627
0.00127352
0.000660801
8.1532e-17
-0.000660801
-0.00127352
-0.00179627
-0.00219672
-0.00245244
-0.00254916
-0.00251408
-0.00249708
0.00244117
0.00248227
0.00249017
0.00239606
0.00216087
0.00178231
0.00127414
0.000665091
8.50015e-17
-0.000665091
-0.00127414
-0.00178231
-0.00216087
-0.00239606
-0.00249017
-0.00248227
-0.00244117
0.00232224
0.00240834
0.0024349
0.00236036
0.00215419
0.00180257
0.00130696
0.000689428
8.50015e-17
-0.000689428
-0.00130696
-0.00180257
-0.00215419
-0.00236036
-0.0024349
-0.00240834
-0.00232224
0.00221997
0.00234326
0.00239645
0.00235082
0.00217956
0.00186114
0.00138027
0.000741587
1.2837e-16
-0.000741587
-0.00138027
-0.00186114
-0.00217956
-0.00235082
-0.00239645
-0.00234326
-0.00221997
0.00214215
0.00229541
0.00237588
0.00236087
0.00222719
0.00195026
0.00149832
0.000834859
1.5439e-16
-0.000834859
-0.00149832
-0.00195026
-0.00222719
-0.00236087
-0.00237588
-0.00229541
-0.00214215
0.00209492
0.00226762
0.00236793
0.00237655
0.00227382
0.00203819
0.00163693
0.000990399
1.63064e-16
-0.000990399
-0.00163693
-0.00203819
-0.00227382
-0.00237655
-0.00236793
-0.00226762
-0.00209492
0.00207913
0.00225861
0.0023662
0.00238376
0.00229325
0.00207523
0.00170468
0.00113779
2.32453e-16
-0.00113779
-0.00170468
-0.00207523
-0.00229325
-0.00238376
-0.0023662
-0.00225861
-0.00207913
0.00209492
0.00226762
0.00236793
0.00237655
0.00227382
0.00203819
0.00163693
0.000990399
2.1684e-16
-0.000990399
-0.00163693
-0.00203819
-0.00227382
-0.00237655
-0.00236793
-0.00226762
-0.00209492
0.00214215
0.00229541
0.00237588
0.00236087
0.00222719
0.00195026
0.00149832
0.000834859
1.99493e-16
-0.000834859
-0.00149832
-0.00195026
-0.00222719
-0.00236087
-0.00237588
-0.00229541
-0.00214215
0.00221997
0.00234326
0.00239645
0.00235082
0.00217956
0.00186114
0.00138027
0.000741587
2.15106e-16
-0.000741587
-0.00138027
-0.00186114
-0.00217956
-0.00235082
-0.00239645
-0.00234326
-0.00221997
0.00232224
0.00240834
0.0024349
0.00236036
0.00215419
0.00180257
0.00130696
0.000689428
3.01842e-16
-0.000689428
-0.00130696
-0.00180257
-0.00215419
-0.00236036
-0.0024349
-0.00240834
-0.00232224
0.00244117
0.00248227
0.00249017
0.00239606
0.00216087
0.00178231
0.00127414
0.000665091
3.62557e-16
-0.000665091
-0.00127414
-0.00178231
-0.00216087
-0.00239606
-0.00249017
-0.00248227
-0.00244117
0.00249708
0.00251408
0.00254916
0.00245244
0.00219672
0.00179627
0.00127352
0.000660801
4.4062e-16
-0.000660801
-0.00127352
-0.00179627
-0.00219672
-0.00245244
-0.00254916
-0.00251408
-0.00249708
0.00257456
0.00243408
0.00258133
0.00251471
0.00225637
0.00183952
0.00129908
0.000672026
5.10009e-16
-0.000672026
-0.00129908
-0.00183952
-0.00225637
-0.00251471
-0.00258133
-0.00243408
-0.00257456
0
0.00201663
0.00258374
0.00259541
0.00234583
0.00191313
0.00134911
0.000696898
5.64219e-16
-0.000696898
-0.00134911
-0.00191313
-0.00234583
-0.00259541
-0.00258374
-0.00201663
0
SCALARS load1_theta_3   double  1
LOOKUP_TABLE load1_theta_3
0
0
0
0
0
0
0
0
0
0
0
0
0
0
0
0
0
0
0
0
0
0
0
0
0
0
0
0
0
0
0
0
0
0
0
0
0
0
0
0
0
0
0
0
0
0
0
0
0
0
0
0
0
0
0
0
0
0
0
0
0
0
0
0
0
0
0
0
0
0
0
0
0
0
0
0
0
0
0
0
0
0
0
0
0
0
0
0
0
0
0
0
0
0
0
0
0
0
0
0
0
0
0
0
0
0
0
0
0
0
0
0
0
0
0
0
0
0
0
0
0
0
0
0
0
0
0
0
0
0
0
0
0
0
0
0
0
0
0
0
0
0
0
0
0
0
0
0
0
0
0
0
0
0
0
0
0
0
0
0
0
0
0
0
0
0
0
0
0
0
0
0
0
0
0
0
0
0
0
0
0
0
0
0
0
0
0
0
0
0
0
0
0
0
0
0
0
0
0
0
0
0
0
0
0
0
0
0
0
0
0
0
0
0
0
0
0
0
0
0
0
0
0
0
0
0
0
0
0
0
0
0
0
0
0
0
0
0
0
0
0
0
0
0
0
0
0
0
0
0
0
0
0
0
0
0
0
0
0
0
0
0
0
0
0
0
0
0
0
0
0
0
0
0
0
0
0
0
0
0
0
0
0
0
0
0
0
0
0

CELL_DATA         256
SCALARS load1_Mises   double  1
LOOKUP_TABLE load1__Mises
3.1021e+06
662518
157652
402806
626868
797111
916077
977847
977847
916077
797111
626868
402806
157652
662518
3.1021e+06
662518
210983
163723
382054
583575
750940
873698
939164
939164
873698
750940
583575
382054
163723
210983
662518
157652
163723
238201
388529
564944
731070
860739
932239
932239
860739
731070
564944
388529
238201
163723
157652
402806
382054
388529
461676
598544
756511
893368
973054
973054
893368
756511
598544
461676
388529
382054
402806
626868
583575
564944
598544
698144
842383
987559
1.0795e+06
1.0795e+06
987559
842383
698144
598544
564944
583575
626868
797111
750940
731070
756511
842383
984348
1.15288e+06
1.27372e+06
1.27372e+06
1.15288e+06
984348
842383
756511
731070
750940
797111
916077
873698
860739
893368
987559
1.15288e+06
1.38513e+06
1.60627e+06
1.60627e+06
1.38513e+06
1.15288e+06
987559
893368
860739
873698
916077
977847
939164
932239
973054
1.0795e+06
1.27372e+06
1.60627e+06
2.22142e+06
2.22142e+06
1.60627e+06
1.27372e+06
1.0795e+06
973054
932239
939164
977847
977847
939164
932239
973054
1.0795e+06
1.27372e+06
1.60627e+06
2.22142e+06
2.22142e+06
1.60627e+06
1.27372e+06
1.0795e+06
973054
932239
939164
977847
916077
873698
860739
893368
987559
1.15288e+06
1.38513e+06
1.60627e+06
1.60627e+06
1.38513e+06
1.15288e+06
987559
893368
860739
873698
916077
797111
750940
731070
756511
842383
984348
1.15288e+06
1.27372e+06
1.27372e+06
1.15288e+06
984348
842383
756511
731070
750940
797111
626868
583575
564944
598544
698144
842383
987559
1.0795e+06
1.0795e+06
987559
842383
698144
598544
564944
583575
626868
402806
382054
388529
461676
598544
756511
893368
973054
973054
893368
756511
598544
461676
388529
382054
402806
157652
163723
238201
388529
564944
731070
860739
932239
932239
860739
731070
564944
388529
238201
163723
157652
662518
210983
163723
382054
583575
750940
873698
939164
939164
873698
750940
583575
382054
163723
210983
662518
3.1021e+06
662518
157652
402806
626868
797111
916077
977847
977847
916077
797111
626868
402806
157652
662518
3.1021e+06
