# vtk DataFile Version 3.0
8h test
ASCII
DATASET UNSTRUCTURED_GRID

POINTS         8   double
0              0              0
1              0              0
1              1              0
0              1              0
0              0              1
1              0              1
1              1              1
0              1              1

CELLS           1           9
8          0        1        3        2        4        5        7        6

CELL_TYPES           1
11

POINT_DATA           8
SCALARS load1_x   double  1
LOOKUP_TABLE load1_x
0
-3e-006
-3e-006
-4.23516e-021
0
-3e-006
-3e-006
8.47033e-022
SCALARS load1_y   double  1
LOOKUP_TABLE load1_y
0
0
1e-005
1e-005
0
0
1e-005
1e-005
SCALARS load1_z   double  1
LOOKUP_TABLE load1_z
0
0
3.55277e-021
6.77626e-021
-3e-006
-3e-006
-3e-006
-3e-006
SCALARS load1_theta_1   double  1
LOOKUP_TABLE load1_theta_1
0
0
0
0
0
0
0
0
SCALARS load1_theta_2   double  1
LOOKUP_TABLE load1_theta_2
0
0
0
0
0
0
0
0
SCALARS load1_theta_3   double  1
LOOKUP_TABLE load1_theta_3
0
0
0
0
0
0
0
0

